# Built with EasyBuild version 3.1.2-r1ee75d947053934640b629cc90dd4f630d886878 on 2017-05-01_19-14-28
easyblock = 'CMakeMake'

name = 'DL_POLY4'
version = '4.08'

homepage = 'http://www.scd.stfc.ac.uk/SCD/44516.aspx'
description = "DL_POLY is a general purpose classical molecular dynamics (MD) simulation software developed at Daresbury Laboratory by I.T. Todorov and W. Smith."

toolchain = {'name': 'iompi', 'version': '2016.4'}

#After having agreed to the license at http://www.scd.stfc.ac.uk/SCD/40526.aspx, a download link and password
#were provided through email. The file was downloaded and unzipped using the password and the resulting directory
#was tarred into dl_poly-4.08.tar.gz.
sources = [SOURCE_TAR_GZ]

builddependencies = [('CMake', '3.6.1')]
group = "soft_dl_poly4"

#sanity_check_paths = {
#    'files': [('lib/libglut.a', 'lib64/libglut.a'), ('lib/libglut.%s' % SHLIB_EXT, 'lib64/libglut.%s' % SHLIB_EXT)],
#    'dirs': ['include/GL'],
#}

moduleclass = 'chem'

# Build statistics
buildstats = [{
    "build_time": 103.78,
    "command_line": ['--add-dummy-to-minimal-toolchains', "--buildpath='/dev/shm/ebuser'", "--configfiles='/cvmfs/soft.computecanada.ca/easybuild/config.cfg'", "--filter-deps='Bison,CMake,flex,ncurses,libreadline,bzip2,zlib,binutils,M4,Autoconf,Automake,libtool,Autotools,Szip,libxml2,sparsehash,SQLite,cURL,Doxygen,expat,Mesa,libGLU,SWIG,PCRE,libjpeg-turbo,LibTIFF,libpng,XZ,ant,gettext,X11,pkg-config,LLVM,libdrm,gperf,FLTK,fontconfig,freetype,GMP,GL2PS,gnuplot,GraphicsMagick,MPFR,libmatheval'", "--filter-env-vars='LD_LIBRARY_PATH'", '--force', "--hide-deps='icc,ifort,GCCcore'", "--hide-toolchains='GCCcore,iompi,iomkl'", '--ignore-osdeps', "--installpath='/cvmfs/soft.computecanada.ca/easybuild'", "--installpath-software='/cvmfs/restricted.computecanada.ca/easybuild/software'", '--minimal-toolchains', "--module-naming-scheme='SoftCCHierarchicalMNS'", "--optarch='{\\'GCC\\': \\'march=core-avx2\\', \\'Intel\\': \\'xCore-AVX2\\', \\'GCCcore\\': \\'GENERIC\\'}'", "--packagepath='/cvmfs/soft.computecanada.ca/easybuild/packages'", "--parallel='8'", "--prefix='/cvmfs/soft.computecanada.ca/easybuild'", '--recursive-module-unload', "--repository='GitRepository'", "--repositorypath='/cvmfs/soft.computecanada.ca/easybuild/ebfiles_repo.git'", "--robot-paths='/cvmfs/soft.computecanada.ca/easybuild/easyconfigs:/cvmfs/soft.computecanada.ca/easybuild/ebfiles_repo'", "--sourcepath='/cvmfs/restricted.computecanada.ca/easybuild/sources'", "--subdir-modules='modules/2017'", "--subdir-software='software/2017'", "--subdir-user-modules='.local/easybuild/modules/2017'", "--suffix-modules-path=''", "--use-ccache='/cvmfs/local/ccache'", 'dl_poly4-4.08-iompi-2016.4.eb'],
    "core_count": 56,
    "cpu_model": "Intel(R) Xeon(R) CPU E5-2680 v4 @ 2.40GHz",
    "cpu_speed": 2399.996,
    "cpu_vendor": "Intel",
    "easybuild-easyblocks_version": "3.1.2-ra498cf9f0c11acd8aea642bdbddf0f3c68c6f09f",
    "easybuild-framework_version": "3.1.2-r1ee75d947053934640b629cc90dd4f630d886878",
    "gcc_version": "Using built-in specs.; COLLECT_GCC=gcc; COLLECT_LTO_WRAPPER=/cvmfs/soft.computecanada.ca/nix/store/lvjwgn6hpngyy6k4xqcqa9h2cxy3fl30-gfortran-5.4.0/libexec/gcc/x86_64-unknown-linux-gnu/5.4.0/lto-wrapper; Target: x86_64-unknown-linux-gnu; Configured with: ; Thread model: posix; gcc version 5.4.0 (GCC) ; ",
    "glibc_version": "2.24",
    "hostname": "build-node.computecanada.ca",
    "install_size": 20676757,
    "modules_tool": ('Lmod', '/cvmfs/soft.computecanada.ca/nix/var/nix/profiles/16.09/lmod/lmod/libexec/lmod', '7.4.5'),
    "os_name": "centos linux",
    "os_type": "Linux",
    "os_version": "7.2.1511",
    "platform_name": "x86_64-unknown-linux",
    "python_version": "2.7.13 (default, Dec 17 2016, 20:05:07) ; [GCC 5.4.0]",
    "system_gcc_path": "/cvmfs/soft.computecanada.ca/nix/var/nix/profiles/gcc-5.4.0/bin/gcc",
    "system_python_path": "/cvmfs/soft.computecanada.ca/nix/var/nix/profiles/16.09/bin/python",
    "timestamp": 1493666068,
    "total_memory": 241658,
}]
