# Built with EasyBuild version 4.7.0-r906ea5725f2e1dfcbceaa79ded1950f683ff5e1b on 2023-05-04_21-23-25
##
# This file is an EasyBuild reciPY as per https://github.com/easybuilders/easybuild
#
# Olivier Fisette <olivier.fisette@westgrid.ca>
##

easyblock = 'CMakeMake'

name = 'HOOMD-blue'
version = '3.6.0'

homepage = 'http://glotzerlab.engin.umich.edu/hoomd-blue/'
description = """HOOMD-blue is a general-purpose particle simulation toolkit for both
GPUs and CPUs, with a Python interface."""

toolchain = {'name': 'GCC', 'version': '9.3.0'}
toolchainopts = {'openmp': False}

source_urls = ['https://github.com/glotzerlab/hoomd-blue/releases/download/v%(version)s/']
sources = ['hoomd-v%(version)s.tar.gz']
checksums = ['a7e4ce4c01078da061b84f2f1be65119b2f887a7a34ce5ee4932206cfa12ea2d']

builddependencies = [
    ('CMake', '3.23.1'),
    ('Eigen', '3.4.0'),
    ('python-build-bundle', '2022a'),
    ('tbb', '2020.2')
]

dependencies = [
    ('SciPy-Stack', '2022a')
]

multi_deps = {'Python': ['3.8', '3.9', '3.10']}

configopts  = '-DENABLE_MPI=OFF -DENABLE_CUDA=OFF -DENABLE_TBB=ON -DENABLE_LLVM=OFF '
configopts += '-DCMAKE_INSTALL_PREFIX=%(installdir)s/lib/python%(pyshortver)s/site-packages '

parallel = 8

runtest = ' && ctest'

sanity_check_paths = {
    'dirs': ['lib']
}

modextrapaths = {'EBPYTHONPREFIXES': ''}

modluafooter = """
if convertToCanonical(LmodVersion()) >= convertToCanonical("8.2.9") then
        depends_on(between('python','3.7<','<3.11'))
end
"""

moduleclass = 'phys'

# Build statistics
buildstats = [{
    "build_time": 45.76,
    "command_line": ['--add-system-to-minimal-toolchains', "--allow-loaded-modules='gentoo'", '--backup-modules', "--buildpath='/tmp/ebuser/avx2'", "--configfiles='/cvmfs/soft.computecanada.ca/easybuild/config.cfg,/cvmfs/soft.computecanada.ca/easybuild/config-gentoo.cfg'", "--containerpath='/cvmfs/soft.computecanada.ca/easybuild/containers'", "--cuda-compute-capabilities='6.0,7.0,7.5,8.0'", '--enforce-checksums', "--env-for-shebang='/cvmfs/soft.computecanada.ca/gentoo/2020/usr/bin/env -S'", "--filter-deps='Bison,CMake=:3.16.5[,flex,ncurses,libreadline,gzip,bzip2,zlib,binutils,M4,Autoconf,Automake,libtool,Autotools,Szip,libxml2,SQLite=:3.36[,cURL,Doxygen,expat=:2.2.5[,Mesa,libGLU,SWIG=:3.0.12],PCRE,libjpeg-turbo,LibTIFF,libpng,XZ,gettext,X11,pkg-config,pkgconf,libdrm,gperf,FLTK,fontconfig,freetype,GMP,GL2PS,GraphicsMagick,MPFR,libmatheval,Tcl,Tk,libX11,libXft,libXpm,libXext,libXt,makedepend,cairo,libiconv,FFmpeg,GLib,FLANN,hwloc=:2.4.0[,numactl,DBus,texinfo,libsndfile,Pango,Lua,FreeImage,zstd,util-linux,file,GTK+,libunwind,LAME,NASM,x264,x265,FriBidi,ASSIMP,libarchive,ImageMagick,Ghostscript,Tkinter,libtirpc,Zip,SDL2,GST-plugins-base,libevent,tcsh,time,libedit,libpciaccess,UnZip,Check,OpenSSL,giflib,libwebp,git'", "--filter-env-vars='LD_LIBRARY_PATH,LD_PRELOAD'", '--disable-fixed-installdir-naming-scheme', '--force', "--hide-deps='icc,ifort,GCCcore'", "--hide-toolchains='GCCcore,iompi,iomkl,gompic'", "--hooks='/cvmfs/soft.computecanada.ca/easybuild/cc_hooks_gentoo.py'", '--ignore-osdeps', "--include-module-naming-schemes='/cvmfs/soft.computecanada.ca/easybuild/easybuild-computecanada-config/SoftCCHierarchicalMNS.py'", "--include-toolchains='/cvmfs/soft.computecanada.ca/easybuild/easybuild-computecanada-config/toolchains/*.py'", "--installpath='/cvmfs/soft.computecanada.ca/easybuild'", '--minimal-toolchains', '--module-depends-on', '--module-extensions', "--module-naming-scheme='SoftCCHierarchicalMNS'", '--module-only', "--optarch='{\\'NVHPC\\': \\'tp=haswell\\', \\'Intel\\': \\'march=core-avx2 -axCore-AVX512\\', \\'GCC\\': \\'march=core-avx2\\'}'", "--packagepath='/cvmfs/soft.computecanada.ca/easybuild/packages'", "--parallel='8'", "--prefix='/cvmfs/soft.computecanada.ca/easybuild'", '--recursive-module-unload', "--repository='GitRepository'", "--repositorypath='/cvmfs/soft.computecanada.ca/easybuild/ebfiles_repo.git,2020'", "--robot-paths='/cvmfs/soft.computecanada.ca/easybuild/ebfiles_repo/2020:/cvmfs/soft.computecanada.ca/easybuild/easyconfigs'", "--sourcepath='/cvmfs/soft.computecanada.ca/easybuild/sources'", "--subdir-modules='modules/2020'", "--subdir-software='software/2020'", "--subdir-user-modules='.local/easybuild/modules/2020'", "--suffix-modules-path=''", "--sysroot='/cvmfs/soft.computecanada.ca/gentoo/2020'", "--use-ccache='/cvmfs/local/ccache'", '--use-existing-modules', '/cvmfs/soft.computecanada.ca/easybuild/easyconfigs/h/HOOMD-blue/HOOMD-blue-3.6.0-GCC-9.3.0.eb'],
    "core_count": 16,
    "cpu_arch": "x86_64",
    "cpu_arch_name": "UNKNOWN",
    "cpu_model": "Intel Xeon Processor (Skylake, IBRS)",
    "cpu_speed": 2494.14,
    "cpu_vendor": "Intel",
    "easybuild-easyblocks_version": "4.7.0-r0fbdad36cc6450b7f3292c59d5ce95c4d2244a71",
    "easybuild-framework_version": "4.7.0-r906ea5725f2e1dfcbceaa79ded1950f683ff5e1b",
    "gcc_version": "Using built-in specs.; COLLECT_GCC=gcc; COLLECT_LTO_WRAPPER=/cvmfs/soft.computecanada.ca/easybuild/software/2020/Core/gcccore/9.3.0/libexec/gcc/x86_64-pc-linux-gnu/9.3.0/lto-wrapper; OFFLOAD_TARGET_NAMES=nvptx-none; Target: x86_64-pc-linux-gnu; Configured with: ../configure --with-sysroot=/cvmfs/soft.computecanada.ca/gentoo/2020 --enable-languages=c,c++,fortran --without-cuda-driver --enable-offload-targets=nvptx-none --enable-lto --enable-checking=release --disable-multilib --enable-shared=yes --enable-static=yes --enable-threads=posix --enable-plugins --enable-gold=default --enable-ld --with-plugin-ld=ld.gold --prefix=/cvmfs/soft.computecanada.ca/easybuild/software/2020/Core/gcccore/9.3.0 --with-local-prefix=/cvmfs/soft.computecanada.ca/easybuild/software/2020/Core/gcccore/9.3.0 --enable-bootstrap --with-isl=/tmp/ebuser/avx2/GCCcore/9.3.0/system-system/gcc-9.3.0/stage2_stuff --build=x86_64-pc-linux-gnu --host=x86_64-pc-linux-gnu; Thread model: posix; gcc version 9.3.0 (GCC) ; ",
    "glibc_version": "2.30",
    "hostname": "build-node.computecanada.ca",
    "install_size": 115590558,
    "modules_tool": ('Lmod', '/cvmfs/soft.computecanada.ca/custom/software/lmod/lmod/libexec/lmod', '8.7.4'),
    "os_name": "CentOS Linux",
    "os_type": "Linux",
    "os_version": "7.9.2009",
    "platform_name": "x86_64-unknown-linux",
    "python_version": "3.7.7 (default, May  5 2020, 15:36:34) ; [GCC 9.3.0]",
    "system_gcc_path": "/cvmfs/soft.computecanada.ca/easybuild/software/2020/Core/gcccore/9.3.0/bin/gcc",
    "system_python_path": "/cvmfs/soft.computecanada.ca/easybuild/software/2020/avx2/Core/python/3.10.2/bin/python",
    "timestamp": 1683235403,
    "total_memory": 60231,
}]
