# Built with EasyBuild version 4.2.2-r64415f53d9bdff498788ce494f68a98641a3883d on 2020-09-15_17-57-53
##
# This file is an EasyBuild reciPY as per https://github.com/easybuilders/easybuild
#
# Olivier Fisette <olivier.fisette@westgrid.ca>
##

easyblock = 'CMakeMake'

name = 'HOOMD-blue'
version = '2.9.3'

homepage = 'http://glotzerlab.engin.umich.edu/hoomd-blue/'
description = """HOOMD-blue is a general-purpose particle simulation toolkit for both
GPUs and CPUs, with a Python interface."""

toolchain = {'name': 'gompi', 'version': '2020a'}
toolchainopts = {'openmp': False, 'usempi': True}

source_urls = ['https://glotzerlab.engin.umich.edu/Downloads/hoomd/']
sources = ['hoomd-v%(version)s.tar.gz']
checksums = ['ace2f9b4e4d05e3282e173632b7d895b5e3762bc7919f609fa31ec7b77c6ce28']

dependencies = [
    ('Python', '3.8.2'),
    ('SciPy-Stack', '2020a'),
    ('tbb', '2020.2'),
]

configopts  = '-DENABLE_MPI=ON -DENABLE_CUDA=OFF -DENABLE_TBB=ON '
configopts += '-DCMAKE_INSTALL_PREFIX=%(installdir)s/lib/python3.8/site-packages '

parallel = 8

runtest = ' && ctest'

sanity_check_paths = {
    'files': ['lib/python3.8/site-packages/hoomd/__init__.py'],
    'dirs': []
}

modextrapaths = {'PYTHONPATH': 'lib/python3.8/site-packages'}
moduleclass = 'phys'

# Build statistics
buildstats = [{
    "build_time": 1247.55,
    "command_line": ['--add-system-to-minimal-toolchains', "--allow-loaded-modules='gentoo'", "--buildpath='/tmp/ebuser/avx2'", "--configfiles='/cvmfs/soft.computecanada.ca/easybuild/config.cfg,/cvmfs/soft.computecanada.ca/easybuild/config-gentoo.cfg'", "--containerpath='/cvmfs/soft.computecanada.ca/easybuild/containers'", '--enforce-checksums', "--filter-deps='Bison,CMake=:3.16.5[,flex,ncurses,libreadline,bzip2,zlib,binutils,M4,Autoconf,Automake,libtool,Autotools,Szip,libxml2,SQLite,cURL,Doxygen,expat=:2.2.5[,Mesa,libGLU,SWIG=:3.0.12[,PCRE,libjpeg-turbo,LibTIFF,libpng,XZ,ant,gettext,X11,pkg-config,libdrm,gperf,FLTK,fontconfig,freetype,GMP,GL2PS,GraphicsMagick,MPFR,libmatheval,Tcl,Tk,libX11,libXft,libXpm,libXext,makedepend,cairo,libiconv,FFmpeg,GLib,FLANN,hwloc,numactl,DBus,texinfo,libsndfile,Pango,Lua,FreeImage,zstd,util-linux,file'", "--filter-env-vars='LD_LIBRARY_PATH,LD_PRELOAD'", '--disable-fixed-installdir-naming-scheme', "--hide-deps='icc,ifort,GCCcore'", "--hide-toolchains='GCCcore,iompi,iomkl'", "--hooks='/cvmfs/soft.computecanada.ca/easybuild/cc_hooks_gentoo.py'", '--ignore-osdeps', "--include-module-naming-schemes='/cvmfs/soft.computecanada.ca/easybuild/easybuild-computecanada-config/SoftCCHierarchicalMNS.py'", "--include-toolchains='/cvmfs/soft.computecanada.ca/easybuild/easybuild-computecanada-config/toolchains/*.py'", "--installpath='/cvmfs/soft.computecanada.ca/easybuild'", '--minimal-toolchains', '--module-depends-on', "--module-naming-scheme='SoftCCHierarchicalMNS'", "--optarch='{\\'PGI\\': \\'tp=haswell\\', \\'Intel\\': \\'march=core-avx2 -axCore-AVX512\\', \\'GCC\\': \\'march=core-avx2\\'}'", "--packagepath='/cvmfs/soft.computecanada.ca/easybuild/packages'", "--parallel='8'", "--prefix='/cvmfs/soft.computecanada.ca/easybuild'", '--recursive-module-unload', "--repository='GitRepository'", "--repositorypath='/cvmfs/soft.computecanada.ca/easybuild/ebfiles_repo.git,2020'", "--robot-paths='/cvmfs/soft.computecanada.ca/easybuild/easyconfigs:/cvmfs/soft.computecanada.ca/easybuild/ebfiles_repo/2020'", "--sourcepath='/cvmfs/soft.computecanada.ca/easybuild/sources'", "--subdir-modules='modules/2020'", "--subdir-software='software/2020'", "--subdir-user-modules='.local/easybuild/modules/2020'", "--suffix-modules-path=''", "--use-ccache='/cvmfs/local/ccache'", '--use-existing-modules', 'HOOMD-blue-2.9.3-gompi-2020a.eb'],
    "core_count": 16,
    "cpu_arch": "x86_64",
    "cpu_arch_name": "UNKNOWN",
    "cpu_model": "Intel Xeon Processor (Skylake, IBRS)",
    "cpu_speed": 2494.14,
    "cpu_vendor": "Intel",
    "easybuild-easyblocks_version": "4.2.2-r520f4bae721db7eac4420b575115d13480834b7d",
    "easybuild-framework_version": "4.2.2-r64415f53d9bdff498788ce494f68a98641a3883d",
    "gcc_version": "Using built-in specs.; COLLECT_GCC=/cvmfs/soft.computecanada.ca/easybuild/software/2020/Core/gcccore/9.3.0/bin/gcc; COLLECT_LTO_WRAPPER=/cvmfs/soft.computecanada.ca/easybuild/software/2020/Core/gcccore/9.3.0/libexec/gcc/x86_64-pc-linux-gnu/9.3.0/lto-wrapper; Target: x86_64-pc-linux-gnu; Configured with: ../configure --with-sysroot=/cvmfs/soft.computecanada.ca/gentoo/2020 --enable-languages=c,c++,fortran --enable-lto --enable-checking=release --disable-multilib --enable-shared=yes --enable-static=yes --enable-threads=posix --enable-plugins --enable-gold=default --enable-ld --with-plugin-ld=ld.gold --prefix=/cvmfs/soft.computecanada.ca/easybuild/software/2020/Core/gcccore/9.3.0 --with-local-prefix=/cvmfs/soft.computecanada.ca/easybuild/software/2020/Core/gcccore/9.3.0 --enable-bootstrap --with-isl=/tmp/ebuser/avx2/GCCcore/9.3.0/system-system/gcc-9.3.0/stage2_stuff; Thread model: posix; gcc version 9.3.0 (GCC) ; ",
    "glibc_version": "2.30",
    "hostname": "build-node.computecanada.ca",
    "install_size": 43957771,
    "modules_tool": ('Lmod', '/cvmfs/soft.computecanada.ca/custom/software/lmod/lmod/libexec/lmod', '8.3.8'),
    "os_name": "centos linux",
    "os_type": "Linux",
    "os_version": "7.8.2003",
    "platform_name": "x86_64-unknown-linux",
    "python_version": "3.7.7 (default, May  5 2020, 15:36:34) ; [GCC 9.3.0]",
    "system_gcc_path": "/tmp/eb-yi4qbryb/tmphprzeohu/gcc",
    "system_python_path": "/cvmfs/soft.computecanada.ca/easybuild/software/2020/avx2/Core/python/3.8.2/bin/python",
    "timestamp": 1600192672,
    "total_memory": 60232,
}]
