# Built with EasyBuild version 4.4.1-rdab827bf36865e0e6adf48747a2654e0230e13bb on 2021-08-11_17-07-01
##
# This file is an EasyBuild reciPY as per https://github.com/easybuilders/easybuild
#
# Olivier Fisette <olivier.fisette@westgrid.ca>
##

easyblock = 'CMakeMake'

name = 'HOOMD-blue'
version = '2.9.3'

homepage = 'http://glotzerlab.engin.umich.edu/hoomd-blue/'
description = """HOOMD-blue is a general-purpose particle simulation toolkit for both
GPUs and CPUs, with a Python interface."""

toolchain = {'name': 'gcccuda', 'version': '2020a'}
toolchainopts = {'openmp': False}

source_urls = ['https://glotzerlab.engin.umich.edu/Downloads/hoomd/']
sources = ['hoomd-v%(version)s.tar.gz']
checksums = ['ace2f9b4e4d05e3282e173632b7d895b5e3762bc7919f609fa31ec7b77c6ce28']

dependencies = [
    ('Python', '3.8.2'),
    ('SciPy-Stack', '2020a'),
    ('tbb', '2020.2'),
    ('cuDNN', '8.0.3'),
]

configopts  = '-DENABLE_MPI=OFF -DENABLE_CUDA=ON -DENABLE_TBB=ON '
configopts += '-DCMAKE_INSTALL_PREFIX=%(installdir)s/lib/python3.8/site-packages '

parallel = 8

# Tests require a GPU
# runtest = ' && ctest'

postinstallcmds = ['/cvmfs/soft.computecanada.ca/easybuild/bin/setrpaths.sh --path %(installdir)s --add_path $EBROOTCUDNN/lib64:$EBROOTCUDACORE/lib64']

sanity_check_paths = {
    'files': ['lib/python3.8/site-packages/hoomd/__init__.py'],
    'dirs': []
}

modextrapaths = {'PYTHONPATH': 'lib/python3.8/site-packages'}
moduleclass = 'phys'

# Build statistics
buildstats = [{
    "build_time": 711.58,
    "command_line": ['--add-system-to-minimal-toolchains', "--allow-loaded-modules='gentoo'", "--buildpath='/tmp/ebuser/avx2'", "--configfiles='/cvmfs/soft.computecanada.ca/easybuild/config.cfg,/cvmfs/soft.computecanada.ca/easybuild/config-gentoo.cfg'", "--containerpath='/cvmfs/soft.computecanada.ca/easybuild/containers'", "--cuda-compute-capabilities='3.5,3.7,5.0,6.0,7.0,7.5,8.0'", '--enforce-checksums', "--env-for-shebang='/cvmfs/soft.computecanada.ca/gentoo/2020/usr/bin/env -S'", "--filter-deps='Bison,CMake=:3.16.5[,flex,ncurses,libreadline,gzip,bzip2,zlib,binutils,M4,Autoconf,Automake,libtool,Autotools,Szip,libxml2,SQLite,cURL,Doxygen,expat=:2.2.5[,Mesa,libGLU,SWIG=:3.0.12],PCRE,libjpeg-turbo,LibTIFF,libpng,XZ,gettext,X11,pkg-config,libdrm,gperf,FLTK,fontconfig,freetype,GMP,GL2PS,GraphicsMagick,MPFR,libmatheval,Tcl,Tk,libX11,libXft,libXpm,libXext,libXt,makedepend,cairo,libiconv,FFmpeg,GLib,FLANN,hwloc=:2.4.0[,numactl,DBus,texinfo,libsndfile,Pango,Lua,FreeImage,zstd,util-linux,file,GTK+,libunwind,LAME,NASM,x264,x265,FriBidi,ASSIMP,libarchive,ImageMagick,Ghostscript,Tkinter,libtirpc,Zip,SDL2,GST-plugins-base,libevent,tcsh,time,libedit,libpciaccess,UnZip,Check,OpenSSL,giflib,libwebp'", "--filter-env-vars='LD_LIBRARY_PATH,LD_PRELOAD'", '--disable-fixed-installdir-naming-scheme', "--hide-deps='icc,ifort,GCCcore'", "--hide-toolchains='GCCcore,iompi,iomkl'", "--hooks='/cvmfs/soft.computecanada.ca/easybuild/cc_hooks_gentoo.py'", '--ignore-osdeps', "--include-module-naming-schemes='/cvmfs/soft.computecanada.ca/easybuild/easybuild-computecanada-config/SoftCCHierarchicalMNS.py'", "--include-toolchains='/cvmfs/soft.computecanada.ca/easybuild/easybuild-computecanada-config/toolchains/*.py'", "--installpath='/cvmfs/soft.computecanada.ca/easybuild'", '--minimal-toolchains', '--module-depends-on', '--module-extensions', "--module-naming-scheme='SoftCCHierarchicalMNS'", "--optarch='{\\'NVHPC\\': \\'tp=haswell\\', \\'Intel\\': \\'march=core-avx2 -axCore-AVX512\\', \\'GCC\\': \\'march=core-avx2\\'}'", "--packagepath='/cvmfs/soft.computecanada.ca/easybuild/packages'", "--parallel='8'", "--prefix='/cvmfs/soft.computecanada.ca/easybuild'", '--rebuild', '--recursive-module-unload', "--repository='GitRepository'", "--repositorypath='/cvmfs/soft.computecanada.ca/easybuild/ebfiles_repo.git,2020'", "--robot-paths='/cvmfs/soft.computecanada.ca/easybuild/easyconfigs:/cvmfs/soft.computecanada.ca/easybuild/ebfiles_repo/2020'", "--sourcepath='/cvmfs/soft.computecanada.ca/easybuild/sources'", "--subdir-modules='modules/2020'", "--subdir-software='software/2020'", "--subdir-user-modules='.local/easybuild/modules/2020'", "--suffix-modules-path=''", "--sysroot='/cvmfs/soft.computecanada.ca/gentoo/2020'", "--use-ccache='/cvmfs/local/ccache'", '--use-existing-modules', 'HOOMD-blue-2.9.3-gcccuda-2020a.eb'],
    "core_count": 16,
    "cpu_arch": "x86_64",
    "cpu_arch_name": "UNKNOWN",
    "cpu_model": "Intel Xeon Processor (Skylake, IBRS)",
    "cpu_speed": 2494.14,
    "cpu_vendor": "Intel",
    "easybuild-easyblocks_version": "4.4.1-r72c071533beb55041f89ab5950bc12de40f67b5c",
    "easybuild-framework_version": "4.4.1-rdab827bf36865e0e6adf48747a2654e0230e13bb",
    "gcc_version": "Using built-in specs.; COLLECT_GCC=/cvmfs/soft.computecanada.ca/easybuild/software/2020/Core/gcccore/9.3.0/bin/gcc; COLLECT_LTO_WRAPPER=/cvmfs/soft.computecanada.ca/easybuild/software/2020/Core/gcccore/9.3.0/libexec/gcc/x86_64-pc-linux-gnu/9.3.0/lto-wrapper; OFFLOAD_TARGET_NAMES=nvptx-none; Target: x86_64-pc-linux-gnu; Configured with: ../configure --with-sysroot=/cvmfs/soft.computecanada.ca/gentoo/2020 --enable-languages=c,c++,fortran --without-cuda-driver --enable-offload-targets=nvptx-none --enable-lto --enable-checking=release --disable-multilib --enable-shared=yes --enable-static=yes --enable-threads=posix --enable-plugins --enable-gold=default --enable-ld --with-plugin-ld=ld.gold --prefix=/cvmfs/soft.computecanada.ca/easybuild/software/2020/Core/gcccore/9.3.0 --with-local-prefix=/cvmfs/soft.computecanada.ca/easybuild/software/2020/Core/gcccore/9.3.0 --enable-bootstrap --with-isl=/tmp/ebuser/avx2/GCCcore/9.3.0/system-system/gcc-9.3.0/stage2_stuff --build=x86_64-pc-linux-gnu --host=x86_64-pc-linux-gnu; Thread model: posix; gcc version 9.3.0 (GCC) ; ",
    "glibc_version": "2.30",
    "hostname": "build-node.computecanada.ca",
    "install_size": 197838367,
    "modules_tool": ('Lmod', '/cvmfs/soft.computecanada.ca/custom/software/lmod/lmod/libexec/lmod', '8.4.20'),
    "os_name": "centos linux",
    "os_type": "Linux",
    "os_version": "7.9.2009",
    "platform_name": "x86_64-unknown-linux",
    "python_version": "3.7.7 (default, May  5 2020, 15:36:34) ; [GCC 9.3.0]",
    "system_gcc_path": "/tmp/eb-wamfpa0x/tmp058r40j6/gcc",
    "system_python_path": "/cvmfs/soft.computecanada.ca/easybuild/software/2020/avx2/Core/python/3.8.2/bin/python",
    "timestamp": 1628701620,
    "total_memory": 60232,
}]
